<?xml version="1.0" encoding="UTF-8"?>

<!-- generated on Sun 02 Aug 2015 05:41:43 PM BRT by SUMO gui Version 0.21.0
<?xml version="1.0" encoding="UTF-8"?>

<configuration xmlns:xsi="http://www.w3.org/2001/XMLSchema-instance" xsi:noNamespaceSchemaLocation="http://sumo-sim.org/xsd/sumo-gui.exeConfiguration.xsd">

    <input>
        <net-file value="acosta_buslanes.net.xml"/>
        <route-files value="acosta.rou.xml,acosta_busses.rou.xml"/>
        <additional-files value="acosta_vtypes.add.xml,acosta_detectors.add.xml,acosta_bus_stops.add.xml,acosta_tls.add.xml"/>
    </input>

    <output>
        <tripinfo-output value="tripinfos.xml"/>
        <save-state.prefix value="state"/>
    </output>

    <report>
        <log value="sumo_log.txt"/>
        <no-step-log value="true"/>
    </report>

    <emissions>
        <phemlight-path value="./PHEMlight/"/>
    </emissions>

    <gui_only>
        <gui-settings-file value="settings.gui.xml"/>
    </gui_only>

</configuration>
-->

<tripinfos xmlns:xsi="http://www.w3.org/2001/XMLSchema-instance" xsi:noNamespaceSchemaLocation="http://sumo-sim.org/xsd/tripinfo_file.xsd">
    <tripinfo id="Pepoli_8_16" depart="27.00" departLane="210_0" departPos="0.00" departSpeed="0.00" departDelay="0.00" arrival="86.00" arrivalLane="134b_0" arrivalPos="158.70" arrivalSpeed="13.86" duration="59.00" routeLength="658.75" waitSteps="0" rerouteNo="0" devices="tripinfo_Pepoli_8_16" vType="passenger1" vaporized=""/>
    <tripinfo id="Silvani_11_0" depart="0.00" departLane="203[0]_0" departPos="0.00" departSpeed="0.00" departDelay="0.00" arrival="87.00" arrivalLane="114_0" arrivalPos="693.37" arrivalSpeed="13.15" duration="87.00" routeLength="1095.11" waitSteps="0" rerouteNo="0" devices="tripinfo_Silvani_11_0" vType="passenger3" vaporized=""/>
    <tripinfo id="Pepoli_8_21" depart="37.00" departLane="210_0" departPos="0.00" departSpeed="0.00" departDelay="1.00" arrival="95.00" arrivalLane="134b_0" arrivalPos="158.70" arrivalSpeed="13.57" duration="58.00" routeLength="658.75" waitSteps="0" rerouteNo="0" devices="tripinfo_Pepoli_8_21" vType="passenger2b" vaporized=""/>
    <tripinfo id="Pepoli_8_23" depart="40.00" departLane="210_0" departPos="0.00" departSpeed="0.00" departDelay="1.00" arrival="98.00" arrivalLane="134b_0" arrivalPos="158.70" arrivalSpeed="13.53" duration="58.00" routeLength="658.75" waitSteps="0" rerouteNo="0" devices="tripinfo_Pepoli_8_23" vType="passenger2b" vaporized=""/>
    <tripinfo id="Togliatti_2_8" depart="11.00" departLane="85_0" departPos="0.00" departSpeed="0.00" departDelay="0.00" arrival="102.00" arrivalLane="77[1][1]_0" arrivalPos="464.92" arrivalSpeed="13.36" duration="91.00" routeLength="1111.77" waitSteps="0" rerouteNo="0" devices="tripinfo_Togliatti_2_8" vType="passenger3" vaporized=""/>
    <tripinfo id="Costa_1_4" depart="14.00" departLane="78[0]_0" departPos="0.00" departSpeed="0.00" departDelay="4.00" arrival="111.00" arrivalLane="86_0" arrivalPos="323.60" arrivalSpeed="12.89" duration="97.00" routeLength="1082.56" waitSteps="0" rerouteNo="0" devices="tripinfo_Costa_1_4" vType="passenger1" vaporized=""/>
    <tripinfo id="Costa_1_2" depart="8.00" departLane="78[0]_0" departPos="0.00" departSpeed="0.00" departDelay="3.00" arrival="113.00" arrivalLane="86_0" arrivalPos="323.60" arrivalSpeed="13.56" duration="105.00" routeLength="1082.56" waitSteps="3" rerouteNo="0" devices="tripinfo_Costa_1_2" vType="passenger2b" vaporized=""/>
    <tripinfo id="Costa_12_0" depart="0.00" departLane="78[0]_0" departPos="0.00" departSpeed="0.00" departDelay="0.00" arrival="117.00" arrivalLane="136_0" arrivalPos="188.65" arrivalSpeed="13.75" duration="117.00" routeLength="1293.98" waitSteps="0" rerouteNo="0" devices="tripinfo_Costa_12_0" vType="passenger2a" vaporized=""/>
    <tripinfo id="Costa_12_1" depart="6.00" departLane="78[0]_0" departPos="0.00" departSpeed="0.00" departDelay="4.00" arrival="123.00" arrivalLane="136_0" arrivalPos="188.65" arrivalSpeed="12.60" duration="117.00" routeLength="1293.98" waitSteps="0" rerouteNo="0" devices="tripinfo_Costa_12_1" vType="passenger2a" vaporized=""/>
    <tripinfo id="Audinot_7_0" depart="0.00" departLane="131_0" departPos="0.00" departSpeed="0.00" departDelay="0.00" arrival="124.00" arrivalLane="209_0" arrivalPos="395.74" arrivalSpeed="13.73" duration="124.00" routeLength="861.33" waitSteps="44" rerouteNo="0" devices="tripinfo_Audinot_7_0" vType="passenger4" vaporized=""/>
    <tripinfo id="Costa_3_21" depart="56.00" departLane="78[0]_0" departPos="0.00" departSpeed="0.00" departDelay="2.00" arrival="126.00" arrivalLane="14_0" arrivalPos="90.27" arrivalSpeed="12.62" duration="70.00" routeLength="819.52" waitSteps="0" rerouteNo="0" devices="tripinfo_Costa_3_21" vType="passenger1" vaporized=""/>
    <tripinfo id="Costa_12_3" depart="11.00" departLane="78[0]_0" departPos="0.00" departSpeed="0.00" departDelay="4.00" arrival="127.00" arrivalLane="136_0" arrivalPos="188.65" arrivalSpeed="13.62" duration="116.00" routeLength="1293.98" waitSteps="0" rerouteNo="0" devices="tripinfo_Costa_12_3" vType="passenger5" vaporized=""/>
    <tripinfo id="Costa_12_7" depart="20.00" departLane="78[0]_0" departPos="0.00" departSpeed="0.00" departDelay="2.00" arrival="136.00" arrivalLane="136_0" arrivalPos="188.65" arrivalSpeed="13.77" duration="116.00" routeLength="1293.98" waitSteps="0" rerouteNo="0" devices="tripinfo_Costa_12_7" vType="passenger1" vaporized=""/>
    <tripinfo id="Costa_12_9" depart="25.00" departLane="78[0]_0" departPos="0.00" departSpeed="0.00" departDelay="2.00" arrival="142.00" arrivalLane="136_0" arrivalPos="188.65" arrivalSpeed="12.94" duration="117.00" routeLength="1293.98" waitSteps="0" rerouteNo="0" devices="tripinfo_Costa_12_9" vType="passenger2a" vaporized=""/>
    <tripinfo id="Costa_12_11" depart="28.00" departLane="78[0]_0" departPos="0.00" departSpeed="0.00" departDelay="0.00" arrival="145.00" arrivalLane="136_0" arrivalPos="188.65" arrivalSpeed="13.77" duration="117.00" routeLength="1293.98" waitSteps="0" rerouteNo="0" devices="tripinfo_Costa_12_11" vType="passenger2a" vaporized=""/>
    <tripinfo id="Turati_3_2" depart="69.00" departLane="195_0" departPos="0.00" departSpeed="0.00" departDelay="0.00" arrival="148.00" arrivalLane="14_0" arrivalPos="90.27" arrivalSpeed="13.67" duration="79.00" routeLength="896.50" waitSteps="0" rerouteNo="0" devices="tripinfo_Turati_3_2" vType="ignoring2b" vaporized=""/>
    <tripinfo id="Pepoli_8_25" depart="43.00" departLane="210_0" departPos="0.00" departSpeed="0.00" departDelay="1.00" arrival="151.00" arrivalLane="134b_0" arrivalPos="158.70" arrivalSpeed="12.99" duration="108.00" routeLength="658.75" waitSteps="45" rerouteNo="0" devices="tripinfo_Pepoli_8_25" vType="passenger2a" vaporized=""/>
    <tripinfo id="Togliatti_12_15" depart="23.00" departLane="85_2" departPos="0.00" departSpeed="0.00" departDelay="2.00" arrival="155.00" arrivalLane="136_0" arrivalPos="188.65" arrivalSpeed="13.63" duration="132.00" routeLength="870.58" waitSteps="49" rerouteNo="0" devices="tripinfo_Togliatti_12_15" vType="passenger1" vaporized=""/>
    <tripinfo id="Pepoli_8_28" depart="48.00" departLane="210_0" departPos="0.00" departSpeed="0.00" departDelay="0.00" arrival="155.00" arrivalLane="134b_0" arrivalPos="158.70" arrivalSpeed="13.05" duration="107.00" routeLength="658.75" waitSteps="41" rerouteNo="0" devices="tripinfo_Pepoli_8_28" vType="passenger2a" vaporized=""/>
    <tripinfo id="Pepoli_3_0" depart="0.00" departLane="210_2" departPos="0.00" departSpeed="0.00" departDelay="0.00" arrival="155.00" arrivalLane="14_0" arrivalPos="90.27" arrivalSpeed="12.82" duration="155.00" routeLength="1824.68" waitSteps="0" rerouteNo="0" devices="tripinfo_Pepoli_3_0" vType="ignoring3" vaporized=""/>
    <tripinfo id="Silvani_11_1" depart="2.00" departLane="203[0]_0" departPos="0.00" departSpeed="0.00" departDelay="0.00" arrival="156.00" arrivalLane="114_0" arrivalPos="693.37" arrivalSpeed="13.64" duration="154.00" routeLength="1095.11" waitSteps="58" rerouteNo="0" devices="tripinfo_Silvani_11_1" vType="passenger4" vaporized=""/>
    <tripinfo id="Silvani_11_8" depart="18.00" departLane="203[0]_0" departPos="0.00" departSpeed="0.00" departDelay="0.00" arrival="159.00" arrivalLane="114_1" arrivalPos="693.37" arrivalSpeed="13.59" duration="141.00" routeLength="1095.11" waitSteps="46" rerouteNo="0" devices="tripinfo_Silvani_11_8" vType="passenger1" vaporized=""/>
    <tripinfo id="bus_81_0" depart="4.00" departLane="55_0" departPos="0.00" departSpeed="0.00" departDelay="4.00" arrival="159.00" arrivalLane="114_0" arrivalPos="693.37" arrivalSpeed="13.62" duration="155.00" routeLength="1011.02" waitSteps="57" rerouteNo="0" devices="tripinfo_bus_81_0" vType="bus" vaporized=""/>
    <tripinfo id="Togliatti_12_24" depart="37.00" departLane="85_2" departPos="0.00" departSpeed="0.00" departDelay="3.00" arrival="159.00" arrivalLane="136_0" arrivalPos="188.65" arrivalSpeed="12.70" duration="122.00" routeLength="870.58" waitSteps="37" rerouteNo="0" devices="tripinfo_Togliatti_12_24" vType="passenger1" vaporized=""/>
    <tripinfo id="Pepoli_3_2" depart="3.00" departLane="210_2" departPos="0.00" departSpeed="0.00" departDelay="0.00" arrival="159.00" arrivalLane="14_0" arrivalPos="90.27" arrivalSpeed="12.77" duration="156.00" routeLength="1824.68" waitSteps="0" rerouteNo="0" devices="tripinfo_Pepoli_3_2" vType="ignoring1" vaporized=""/>
    <tripinfo id="Silvani_11_9" depart="21.00" departLane="203[0]_0" departPos="0.00" departSpeed="0.00" departDelay="0.00" arrival="161.00" arrivalLane="114_2" arrivalPos="693.37" arrivalSpeed="13.16" duration="140.00" routeLength="1095.11" waitSteps="46" rerouteNo="0" devices="tripinfo_Silvani_11_9" vType="passenger3" vaporized=""/>
    <tripinfo id="bus_13_0" depart="0.00" departLane="55_0" departPos="0.00" departSpeed="0.00" departDelay="0.00" arrival="161.00" arrivalLane="114_1" arrivalPos="693.37" arrivalSpeed="13.77" duration="161.00" routeLength="1011.02" waitSteps="61" rerouteNo="0" devices="tripinfo_bus_13_0" vType="bus" vaporized=""/>
    <tripinfo id="Togliatti_12_48" depart="72.00" departLane="85_2" departPos="0.00" departSpeed="0.00" departDelay="4.00" arrival="161.00" arrivalLane="136_0" arrivalPos="188.65" arrivalSpeed="13.38" duration="89.00" routeLength="870.58" waitSteps="5" rerouteNo="0" devices="tripinfo_Togliatti_12_48" vType="passenger1" vaporized=""/>
    <tripinfo id="Pepoli_8_44" depart="85.00" departLane="210_0" departPos="0.00" departSpeed="0.00" departDelay="10.00" arrival="162.00" arrivalLane="134b_0" arrivalPos="158.70" arrivalSpeed="12.76" duration="77.00" routeLength="658.75" waitSteps="12" rerouteNo="0" devices="tripinfo_Pepoli_8_44" vType="passenger1" vaporized=""/>
    <tripinfo id="Pepoli_10_4" depart="6.00" departLane="210_0" departPos="0.00" departSpeed="0.00" departDelay="0.00" arrival="164.00" arrivalLane="204[1][1]_0" arrivalPos="436.47" arrivalSpeed="13.60" duration="158.00" routeLength="1372.79" waitSteps="37" rerouteNo="0" devices="tripinfo_Pepoli_10_4" vType="passenger2b" vaporized=""/>
    <tripinfo id="Silvani_11_12" depart="28.00" departLane="203[0]_0" departPos="0.00" departSpeed="0.00" departDelay="0.00" arrival="164.00" arrivalLane="114_0" arrivalPos="693.37" arrivalSpeed="13.78" duration="136.00" routeLength="1095.11" waitSteps="40" rerouteNo="0" devices="tripinfo_Silvani_11_12" vType="passenger4" vaporized=""/>
    <tripinfo id="Pepoli_8_48" depart="88.00" departLane="210_0" departPos="0.00" departSpeed="0.00" departDelay="6.00" arrival="164.00" arrivalLane="134b_0" arrivalPos="158.70" arrivalSpeed="13.01" duration="76.00" routeLength="658.75" waitSteps="11" rerouteNo="0" devices="tripinfo_Pepoli_8_48" vType="passenger1" vaporized=""/>
    <tripinfo id="Togliatti_12_59" depart="89.00" departLane="85_2" departPos="0.00" departSpeed="0.00" departDelay="5.00" arrival="165.00" arrivalLane="136_0" arrivalPos="188.65" arrivalSpeed="12.79" duration="76.00" routeLength="870.58" waitSteps="0" rerouteNo="0" devices="tripinfo_Togliatti_12_59" vType="passenger3" vaporized=""/>
    <tripinfo id="Pepoli_10_10" depart="19.00" departLane="210_0" departPos="0.00" departSpeed="0.00" departDelay="2.00" arrival="166.00" arrivalLane="204[1][1]_0" arrivalPos="436.47" arrivalSpeed="13.63" duration="147.00" routeLength="1372.79" waitSteps="24" rerouteNo="0" devices="tripinfo_Pepoli_10_10" vType="passenger1" vaporized=""/>
    <tripinfo id="Silvani_11_13" depart="31.00" departLane="203[0]_0" departPos="0.00" departSpeed="0.00" departDelay="1.00" arrival="166.00" arrivalLane="114_0" arrivalPos="693.37" arrivalSpeed="13.27" duration="135.00" routeLength="1095.11" waitSteps="38" rerouteNo="0" devices="tripinfo_Silvani_11_13" vType="passenger3" vaporized=""/>
    <tripinfo id="Pepoli_8_51" depart="91.00" departLane="210_0" departPos="0.00" departSpeed="0.00" departDelay="4.00" arrival="166.00" arrivalLane="134b_0" arrivalPos="158.70" arrivalSpeed="13.07" duration="75.00" routeLength="658.75" waitSteps="10" rerouteNo="0" devices="tripinfo_Pepoli_8_51" vType="passenger2b" vaporized=""/>
    <tripinfo id="Silvani_11_14" depart="34.00" departLane="203[0]_0" departPos="0.00" departSpeed="0.00" departDelay="1.00" arrival="167.00" arrivalLane="114_0" arrivalPos="693.37" arrivalSpeed="12.92" duration="133.00" routeLength="1095.11" waitSteps="38" rerouteNo="0" devices="tripinfo_Silvani_11_14" vType="passenger4" vaporized=""/>
    <tripinfo id="Pepoli_10_11" depart="22.00" departLane="210_1" departPos="0.00" departSpeed="0.00" departDelay="4.00" arrival="168.00" arrivalLane="204[1][1]_0" arrivalPos="436.47" arrivalSpeed="13.25" duration="146.00" routeLength="1372.79" waitSteps="22" rerouteNo="0" devices="tripinfo_Pepoli_10_11" vType="passenger2b" vaporized=""/>
    <tripinfo id="Vittorio_Veneto_1_4" depart="18.00" departLane="224[0]_0" departPos="0.00" departSpeed="0.00" departDelay="0.00" arrival="169.00" arrivalLane="86_0" arrivalPos="323.60" arrivalSpeed="13.56" duration="151.00" routeLength="1124.65" waitSteps="53" rerouteNo="0" devices="tripinfo_Vittorio_Veneto_1_4" vType="passenger3" vaporized=""/>
    <tripinfo id="Pepoli_10_18" depart="32.00" departLane="210_1" departPos="0.00" departSpeed="0.00" departDelay="2.00" arrival="169.00" arrivalLane="204[1][1]_0" arrivalPos="436.47" arrivalSpeed="13.45" duration="137.00" routeLength="1372.79" waitSteps="13" rerouteNo="0" devices="tripinfo_Pepoli_10_18" vType="passenger2b" vaporized=""/>
    <tripinfo id="Silvani_11_16" depart="37.00" departLane="203[0]_0" departPos="0.00" departSpeed="0.00" departDelay="0.00" arrival="169.00" arrivalLane="114_0" arrivalPos="693.37" arrivalSpeed="13.14" duration="132.00" routeLength="1095.11" waitSteps="35" rerouteNo="0" devices="tripinfo_Silvani_11_16" vType="passenger2a" vaporized=""/>
    <tripinfo id="XXI_Aprile_2_12" depart="42.00" departLane="13_0" departPos="0.00" departSpeed="0.00" departDelay="0.00" arrival="169.00" arrivalLane="77[1][1]_0" arrivalPos="464.92" arrivalSpeed="12.98" duration="127.00" routeLength="900.68" waitSteps="34" rerouteNo="0" devices="tripinfo_XXI_Aprile_2_12" vType="passenger4" vaporized=""/>
    <tripinfo id="Silvani_11_17" depart="40.00" departLane="203[0]_0" departPos="0.00" departSpeed="0.00" departDelay="0.00" arrival="170.00" arrivalLane="114_1" arrivalPos="693.37" arrivalSpeed="13.75" duration="130.00" routeLength="1095.11" waitSteps="33" rerouteNo="0" devices="tripinfo_Silvani_11_17" vType="passenger3" vaporized=""/>
    <tripinfo id="Pepoli_10_19" depart="35.00" departLane="210_1" departPos="0.00" departSpeed="0.00" departDelay="3.00" arrival="171.00" arrivalLane="204[1][1]_1" arrivalPos="436.47" arrivalSpeed="13.40" duration="136.00" routeLength="1372.79" waitSteps="14" rerouteNo="0" devices="tripinfo_Pepoli_10_19" vType="passenger1" vaporized=""/>
    <tripinfo id="Pepoli_10_20" depart="37.00" departLane="210_1" departPos="0.00" departSpeed="0.00" departDelay="3.00" arrival="171.00" arrivalLane="204[1][1]_0" arrivalPos="436.47" arrivalSpeed="13.71" duration="134.00" routeLength="1372.79" waitSteps="9" rerouteNo="0" devices="tripinfo_Pepoli_10_20" vType="passenger1" vaporized=""/>
    <tripinfo id="Turati_10_0" depart="0.00" departLane="195_0" departPos="0.00" departSpeed="0.00" departDelay="0.00" arrival="173.00" arrivalLane="204[1][1]_1" arrivalPos="436.47" arrivalSpeed="13.88" duration="173.00" routeLength="1898.37" waitSteps="1" rerouteNo="0" devices="tripinfo_Turati_10_0" vType="passenger1" vaporized=""/>
    <tripinfo id="Pepoli_10_22" depart="40.00" departLane="210_1" departPos="0.00" departSpeed="0.00" departDelay="3.00" arrival="173.00" arrivalLane="204[1][1]_0" arrivalPos="436.47" arrivalSpeed="13.05" duration="133.00" routeLength="1372.79" waitSteps="9" rerouteNo="0" devices="tripinfo_Pepoli_10_22" vType="passenger2a" vaporized=""/>
    <tripinfo id="Silvani_11_24" depart="56.00" departLane="203[0]_0" departPos="0.00" departSpeed="0.00" departDelay="0.00" arrival="174.00" arrivalLane="114_0" arrivalPos="693.37" arrivalSpeed="12.90" duration="118.00" routeLength="1095.11" waitSteps="21" rerouteNo="0" devices="tripinfo_Silvani_11_24" vType="passenger1" vaporized=""/>
    <tripinfo id="Togliatti_71_0" depart="0.00" departLane="85_1" departPos="0.00" departSpeed="0.00" departDelay="0.00" arrival="175.00" arrivalLane="209_0" arrivalPos="395.74" arrivalSpeed="12.69" duration="175.00" routeLength="1922.48" waitSteps="14" rerouteNo="0" devices="tripinfo_Togliatti_71_0" vType="passenger2a" vaporized=""/>
    <tripinfo id="Silvani_11_27" depart="63.00" departLane="203[0]_0" departPos="0.00" departSpeed="0.00" departDelay="0.00" arrival="176.00" arrivalLane="114_1" arrivalPos="693.37" arrivalSpeed="12.78" duration="113.00" routeLength="1095.11" waitSteps="16" rerouteNo="0" devices="tripinfo_Silvani_11_27" vType="passenger2a" vaporized=""/>
    <tripinfo id="bus_91_0" depart="8.00" departLane="55_0" departPos="0.00" departSpeed="0.00" departDelay="8.00" arrival="176.00" arrivalLane="114_0" arrivalPos="693.37" arrivalSpeed="12.93" duration="168.00" routeLength="1011.02" waitSteps="64" rerouteNo="0" devices="tripinfo_bus_91_0" vType="bus" vaporized=""/>
    <tripinfo id="Pepoli_8_62" depart="117.00" departLane="210_0" departPos="0.00" departSpeed="0.00" departDelay="11.00" arrival="176.00" arrivalLane="134b_0" arrivalPos="158.70" arrivalSpeed="13.32" duration="59.00" routeLength="658.75" waitSteps="0" rerouteNo="0" devices="tripinfo_Pepoli_8_62" vType="passenger1" vaporized=""/>
    <tripinfo id="Silvani_11_32" depart="75.00" departLane="203[0]_0" departPos="0.00" departSpeed="0.00" departDelay="0.00" arrival="177.00" arrivalLane="114_2" arrivalPos="693.37" arrivalSpeed="13.14" duration="102.00" routeLength="1095.11" waitSteps="6" rerouteNo="0" devices="tripinfo_Silvani_11_32" vType="passenger2b" vaporized=""/>
    <tripinfo id="Audinot_10_2" depart="42.00" departLane="131_0" departPos="0.00" departSpeed="0.00" departDelay="0.00" arrival="177.00" arrivalLane="204[1][1]_0" arrivalPos="436.47" arrivalSpeed="13.28" duration="135.00" routeLength="1536.81" waitSteps="0" rerouteNo="0" devices="tripinfo_Audinot_10_2" vType="passenger4" vaporized=""/>
    <tripinfo id="Costa_3_33" depart="90.00" departLane="78[0]_0" departPos="0.00" departSpeed="0.00" departDelay="4.00" arrival="178.00" arrivalLane="14_0" arrivalPos="90.27" arrivalSpeed="13.02" duration="88.00" routeLength="819.52" waitSteps="13" rerouteNo="0" devices="tripinfo_Costa_3_33" vType="passenger1" vaporized=""/>
    <tripinfo id="Silvani_11_33" depart="78.00" departLane="203[0]_0" departPos="0.00" departSpeed="0.00" departDelay="1.00" arrival="179.00" arrivalLane="114_2" arrivalPos="693.37" arrivalSpeed="12.85" duration="101.00" routeLength="1095.11" waitSteps="5" rerouteNo="0" devices="tripinfo_Silvani_11_33" vType="passenger1" vaporized=""/>
    <tripinfo id="Silvani_11_23" depart="54.00" departLane="203[0]_0" departPos="0.00" departSpeed="0.00" departDelay="0.00" arrival="179.00" arrivalLane="114_1" arrivalPos="693.37" arrivalSpeed="12.56" duration="125.00" routeLength="1095.11" waitSteps="22" rerouteNo="0" devices="tripinfo_Silvani_11_23" vType="passenger2b" vaporized=""/>
    <tripinfo id="Togliatti_3_18" depart="26.00" departLane="85_0" departPos="0.00" departSpeed="0.00" departDelay="1.00" arrival="180.00" arrivalLane="14_0" arrivalPos="90.27" arrivalSpeed="12.52" duration="154.00" routeLength="1038.26" waitSteps="55" rerouteNo="0" devices="tripinfo_Togliatti_3_18" vType="passenger2b" vaporized=""/>
    <tripinfo id="Silvani_7_5" depart="11.00" departLane="203[0]_1" departPos="0.00" departSpeed="0.00" departDelay="0.00" arrival="181.00" arrivalLane="209_1" arrivalPos="395.74" arrivalSpeed="13.09" duration="170.00" routeLength="1367.80" waitSteps="50" rerouteNo="0" devices="tripinfo_Silvani_7_5" vType="passenger2b" vaporized=""/>
    <tripinfo id="Silvani_7_2" depart="4.00" departLane="203[0]_1" departPos="0.00" departSpeed="0.00" departDelay="0.00" arrival="181.00" arrivalLane="209_0" arrivalPos="395.74" arrivalSpeed="12.90" duration="177.00" routeLength="1367.80" waitSteps="60" rerouteNo="0" devices="tripinfo_Silvani_7_2" vType="passenger2b" vaporized=""/>
    <tripinfo id="Silvani_11_34" depart="80.00" departLane="203[0]_0" departPos="0.00" departSpeed="0.00" departDelay="0.00" arrival="181.00" arrivalLane="114_0" arrivalPos="693.37" arrivalSpeed="13.19" duration="101.00" routeLength="1095.11" waitSteps="3" rerouteNo="0" devices="tripinfo_Silvani_11_34" vType="passenger2b" vaporized=""/>
    <tripinfo id="Togliatti_2_32" depart="55.00" departLane="85_0" departPos="0.00" departSpeed="0.00" departDelay="10.00" arrival="181.00" arrivalLane="77[1][1]_0" arrivalPos="464.92" arrivalSpeed="13.09" duration="126.00" routeLength="1111.77" waitSteps="25" rerouteNo="0" devices="tripinfo_Togliatti_2_32" vType="passenger5" vaporized=""/>
    <tripinfo id="Costa_3_38" depart="103.00" departLane="78[0]_0" departPos="0.00" departSpeed="0.00" departDelay="4.00" arrival="181.00" arrivalLane="14_0" arrivalPos="90.27" arrivalSpeed="13.83" duration="78.00" routeLength="819.52" waitSteps="3" rerouteNo="0" devices="tripinfo_Costa_3_38" vType="passenger2b" vaporized=""/>
    <tripinfo id="Silvani_11_39" depart="92.00" departLane="203[0]_0" departPos="0.00" departSpeed="0.00" departDelay="0.00" arrival="182.00" arrivalLane="114_1" arrivalPos="693.37" arrivalSpeed="13.46" duration="90.00" routeLength="1095.11" waitSteps="0" rerouteNo="0" devices="tripinfo_Silvani_11_39" vType="passenger1" vaporized=""/>
    <tripinfo id="Silvani_7_3" depart="7.00" departLane="203[0]_1" departPos="0.00" departSpeed="0.00" departDelay="0.00" arrival="183.00" arrivalLane="209_1" arrivalPos="395.74" arrivalSpeed="13.31" duration="176.00" routeLength="1367.80" waitSteps="54" rerouteNo="0" devices="tripinfo_Silvani_7_3" vType="passenger2b" vaporized=""/>
    <tripinfo id="Silvani_7_4" depart="9.00" departLane="203[0]_0" departPos="0.00" departSpeed="0.00" departDelay="0.00" arrival="183.00" arrivalLane="209_0" arrivalPos="395.74" arrivalSpeed="13.47" duration="174.00" routeLength="1367.80" waitSteps="51" rerouteNo="0" devices="tripinfo_Silvani_7_4" vType="passenger5" vaporized=""/>
    <tripinfo id="Togliatti_3_31" depart="52.00" departLane="85_0" departPos="0.00" departSpeed="0.00" departDelay="8.00" arrival="183.00" arrivalLane="14_0" arrivalPos="90.27" arrivalSpeed="13.43" duration="131.00" routeLength="1038.26" waitSteps="28" rerouteNo="0" devices="tripinfo_Togliatti_3_31" vType="passenger3" vaporized=""/>
    <tripinfo id="Pepoli_11_5" depart="8.00" departLane="210_1" departPos="0.00" departSpeed="0.00" departDelay="0.00" arrival="184.00" arrivalLane="114_2" arrivalPos="693.37" arrivalSpeed="13.88" duration="176.00" routeLength="1657.81" waitSteps="35" rerouteNo="0" devices="tripinfo_Pepoli_11_5" vType="passenger1" vaporized=""/>
    <tripinfo id="Pepoli_11_3" depart="5.00" departLane="210_1" departPos="0.00" departSpeed="0.00" departDelay="0.00" arrival="184.00" arrivalLane="114_1" arrivalPos="693.37" arrivalSpeed="13.61" duration="179.00" routeLength="1657.81" waitSteps="38" rerouteNo="0" devices="tripinfo_Pepoli_11_3" vType="passenger1" vaporized=""/>
    <tripinfo id="Silvani_11_41" depart="96.00" departLane="203[0]_0" departPos="0.00" departSpeed="0.00" departDelay="0.00" arrival="185.00" arrivalLane="114_0" arrivalPos="693.37" arrivalSpeed="12.56" duration="89.00" routeLength="1095.11" waitSteps="0" rerouteNo="0" devices="tripinfo_Silvani_11_41" vType="passenger2a" vaporized=""/>
    <tripinfo id="Togliatti_3_39" depart="64.00" departLane="85_0" departPos="0.00" departSpeed="0.00" departDelay="9.00" arrival="185.00" arrivalLane="14_0" arrivalPos="90.27" arrivalSpeed="13.02" duration="121.00" routeLength="1038.26" waitSteps="20" rerouteNo="0" devices="tripinfo_Togliatti_3_39" vType="passenger2a" vaporized=""/>
    <tripinfo id="Pepoli_11_6" depart="11.00" departLane="210_1" departPos="0.00" departSpeed="0.00" departDelay="1.00" arrival="186.00" arrivalLane="114_0" arrivalPos="693.37" arrivalSpeed="13.88" duration="175.00" routeLength="1657.81" waitSteps="31" rerouteNo="0" devices="tripinfo_Pepoli_11_6" vType="passenger3" vaporized=""/>
    <tripinfo id="Silvani_7_7" depart="16.00" departLane="203[0]_1" departPos="0.00" departSpeed="0.00" departDelay="0.00" arrival="187.00" arrivalLane="209_1" arrivalPos="395.74" arrivalSpeed="13.33" duration="171.00" routeLength="1367.80" waitSteps="46" rerouteNo="0" devices="tripinfo_Silvani_7_7" vType="passenger3" vaporized=""/>
    <tripinfo id="Silvani_7_11" depart="25.00" departLane="203[0]_1" departPos="0.00" departSpeed="0.00" departDelay="0.00" arrival="187.00" arrivalLane="209_0" arrivalPos="395.74" arrivalSpeed="12.52" duration="162.00" routeLength="1367.80" waitSteps="39" rerouteNo="0" devices="tripinfo_Silvani_7_11" vType="passenger2a" vaporized=""/>
    <tripinfo id="Pepoli_11_7" depart="14.00" departLane="210_1" departPos="0.00" departSpeed="0.00" departDelay="2.00" arrival="187.00" arrivalLane="114_1" arrivalPos="693.37" arrivalSpeed="13.25" duration="173.00" routeLength="1657.81" waitSteps="30" rerouteNo="0" devices="tripinfo_Pepoli_11_7" vType="passenger2a" vaporized=""/>
    <tripinfo id="Vittorio_Veneto_1_10" depart="45.00" departLane="224[0]_0" departPos="0.00" departSpeed="0.00" departDelay="0.00" arrival="188.00" arrivalLane="86_0" arrivalPos="323.60" arrivalSpeed="13.05" duration="143.00" routeLength="1124.65" waitSteps="44" rerouteNo="0" devices="tripinfo_Vittorio_Veneto_1_10" vType="passenger1" vaporized=""/>
    <tripinfo id="Silvani_7_18" depart="42.00" departLane="203[0]_1" departPos="0.00" departSpeed="0.00" departDelay="0.00" arrival="188.00" arrivalLane="209_0" arrivalPos="395.74" arrivalSpeed="13.77" duration="146.00" routeLength="1367.80" waitSteps="26" rerouteNo="0" devices="tripinfo_Silvani_7_18" vType="passenger4" vaporized=""/>
    <tripinfo id="Pepoli_11_9" depart="19.00" departLane="210_1" departPos="0.00" departSpeed="0.00" departDelay="4.00" arrival="188.00" arrivalLane="114_1" arrivalPos="693.37" arrivalSpeed="13.16" duration="169.00" routeLength="1657.81" waitSteps="26" rerouteNo="0" devices="tripinfo_Pepoli_11_9" vType="passenger2b" vaporized=""/>
    <tripinfo id="Pepoli_8_70" depart="131.00" departLane="210_0" departPos="0.00" departSpeed="0.00" departDelay="11.00" arrival="188.00" arrivalLane="134b_0" arrivalPos="158.70" arrivalSpeed="12.64" duration="57.00" routeLength="658.75" waitSteps="0" rerouteNo="0" devices="tripinfo_Pepoli_8_70" vType="passenger2b" vaporized=""/>
    <tripinfo id="Silvani_7_10" depart="23.00" departLane="203[0]_1" departPos="0.00" departSpeed="0.00" departDelay="0.00" arrival="189.00" arrivalLane="209_1" arrivalPos="395.74" arrivalSpeed="12.60" duration="166.00" routeLength="1367.80" waitSteps="41" rerouteNo="0" devices="tripinfo_Silvani_7_10" vType="passenger3" vaporized=""/>
    <tripinfo id="Pepoli_11_8" depart="16.00" departLane="210_1" departPos="0.00" departSpeed="0.00" departDelay="3.00" arrival="189.00" arrivalLane="114_0" arrivalPos="693.37" arrivalSpeed="13.60" duration="173.00" routeLength="1657.81" waitSteps="28" rerouteNo="0" devices="tripinfo_Pepoli_11_8" vType="passenger2b" vaporized=""/>
    <tripinfo id="Togliatti_2_40" depart="66.00" departLane="85_0" departPos="0.00" departSpeed="0.00" departDelay="10.00" arrival="189.00" arrivalLane="77[1][1]_0" arrivalPos="464.92" arrivalSpeed="13.37" duration="123.00" routeLength="1111.77" waitSteps="20" rerouteNo="0" devices="tripinfo_Togliatti_2_40" vType="passenger1" vaporized=""/>
    <tripinfo id="Silvani_7_20" depart="48.00" departLane="203[0]_1" departPos="0.00" departSpeed="0.00" departDelay="1.00" arrival="190.00" arrivalLane="209_0" arrivalPos="395.74" arrivalSpeed="12.73" duration="142.00" routeLength="1367.80" waitSteps="22" rerouteNo="0" devices="tripinfo_Silvani_7_20" vType="passenger3" vaporized=""/>
    <tripinfo id="Pepoli_11_17" depart="29.00" departLane="210_1" departPos="0.00" departSpeed="0.00" departDelay="0.00" arrival="190.00" arrivalLane="114_2" arrivalPos="693.37" arrivalSpeed="13.06" duration="161.00" routeLength="1657.81" waitSteps="18" rerouteNo="0" devices="tripinfo_Pepoli_11_17" vType="passenger3" vaporized=""/>
    <tripinfo id="Pepoli_11_15" depart="25.00" departLane="210_1" departPos="0.00" departSpeed="0.00" departDelay="0.00" arrival="190.00" arrivalLane="114_1" arrivalPos="693.37" arrivalSpeed="13.47" duration="165.00" routeLength="1657.81" waitSteps="20" rerouteNo="0" devices="tripinfo_Pepoli_11_15" vType="passenger1" vaporized=""/>
    <tripinfo id="Silvani_7_15" depart="35.00" departLane="203[0]_1" departPos="0.00" departSpeed="0.00" departDelay="0.00" arrival="191.00" arrivalLane="209_1" arrivalPos="395.74" arrivalSpeed="13.77" duration="156.00" routeLength="1367.80" waitSteps="32" rerouteNo="0" devices="tripinfo_Silvani_7_15" vType="passenger1" vaporized=""/>